
 displacements (vx,vy,vz)

    1  0.0000E+00  0.0000E+00  0.0000E+00
    2  0.0000E+00  0.0000E+00  0.0000E+00
    3  0.0000E+00  0.0000E+00  0.0000E+00
    4  0.0000E+00  0.0000E+00  0.0000E+00
    5 -2.0437E-02  4.3844E+01  4.0903E+00
    6  2.0437E-02  4.3844E+01  4.0903E+00
    7 -2.0437E-02  4.3844E+01 -4.0903E+00
    8  2.0437E-02  4.3844E+01 -4.0903E+00
    9  0.0000E+00  0.0000E+00  0.0000E+00
   10  0.0000E+00  0.0000E+00  0.0000E+00
   11  0.0000E+00  0.0000E+00  0.0000E+00
   12  0.0000E+00  0.0000E+00  0.0000E+00
   13  0.0000E+00  0.0000E+00  0.0000E+00
   14  0.0000E+00  0.0000E+00  0.0000E+00
   15  0.0000E+00  0.0000E+00  0.0000E+00
   16  0.0000E+00  0.0000E+00  0.0000E+00
   17  0.0000E+00  0.0000E+00  0.0000E+00
   18  0.0000E+00  0.0000E+00  0.0000E+00
   19  0.0000E+00  0.0000E+00  0.0000E+00
   20  0.0000E+00  0.0000E+00  0.0000E+00
   21 -9.3375E-03  4.3801E+01  4.0864E+00
   22 -5.1048E-11  4.3797E+01  4.0778E+00
   23  9.3375E-03  4.3801E+01  4.0864E+00
   24  5.2910E-05  4.3811E+01  2.0318E+00
   25 -5.2661E-11  4.3788E+01  4.3343E-12
   26 -5.2910E-05  4.3811E+01 -2.0318E+00
   27 -9.3375E-03  4.3801E+01 -4.0864E+00
   28 -5.4339E-11  4.3797E+01 -4.0778E+00
   29  9.3375E-03  4.3801E+01 -4.0864E+00
   30  5.2910E-05  4.3811E+01 -2.0318E+00
   31 -5.2689E-11  4.3788E+01 -5.1573E-12
   32 -5.2910E-05  4.3811E+01  2.0318E+00
   33 -1.5435E-01  2.6899E-01  4.6295E-01
   34 -1.1252E-01  9.5991E-01  9.2727E-01
   35 -1.2709E-01  2.1600E+00  1.3632E+00
   36 -1.1217E-01  3.7416E+00  1.7662E+00
   37 -1.0663E-01  5.7345E+00  2.1335E+00
   38 -9.5462E-02  8.0638E+00  2.4716E+00
   39 -8.6947E-02  1.0724E+01  2.7766E+00
   40 -7.6882E-02  1.3668E+01  3.0504E+00
   41 -6.7615E-02  1.6872E+01  3.2909E+00
   42 -5.8219E-02  2.0300E+01  3.5001E+00
   43 -4.7673E-02  2.3920E+01  3.6767E+00
   44 -3.8211E-02  2.7706E+01  3.8223E+00
   45 -2.9797E-02  3.1608E+01  3.9332E+00
   46 -2.4431E-02  3.5620E+01  4.0137E+00
   47 -1.9010E-03  3.9691E+01  4.0632E+00
   48  1.9010E-03  3.9691E+01  4.0632E+00
   49  2.4431E-02  3.5620E+01  4.0137E+00
   50  2.9797E-02  3.1608E+01  3.9332E+00
   51  3.8211E-02  2.7706E+01  3.8223E+00
   52  4.7673E-02  2.3920E+01  3.6767E+00
   53  5.8219E-02  2.0300E+01  3.5001E+00
   54  6.7615E-02  1.6872E+01  3.2909E+00
   55  7.6882E-02  1.3668E+01  3.0504E+00
   56  8.6947E-02  1.0724E+01  2.7766E+00
   57  9.5462E-02  8.0638E+00  2.4716E+00
   58  1.0663E-01  5.7345E+00  2.1335E+00
   59  1.1217E-01  3.7416E+00  1.7662E+00
   60  1.2709E-01  2.1600E+00  1.3632E+00
   61  1.1252E-01  9.5991E-01  9.2727E-01
   62  1.5435E-01  2.6899E-01  4.6295E-01
   63  1.5435E-01  2.6899E-01 -4.6295E-01
   64  1.1252E-01  9.5991E-01 -9.2727E-01
   65  1.2709E-01  2.1600E+00 -1.3632E+00
   66  1.1217E-01  3.7416E+00 -1.7662E+00
   67  1.0663E-01  5.7345E+00 -2.1335E+00
   68  9.5462E-02  8.0638E+00 -2.4716E+00
   69  8.6947E-02  1.0724E+01 -2.7766E+00
   70  7.6882E-02  1.3668E+01 -3.0504E+00
   71  6.7615E-02  1.6872E+01 -3.2909E+00
   72  5.8219E-02  2.0300E+01 -3.5001E+00
   73  4.7673E-02  2.3920E+01 -3.6767E+00
   74  3.8211E-02  2.7706E+01 -3.8223E+00
   75  2.9797E-02  3.1608E+01 -3.9332E+00
   76  2.4431E-02  3.5620E+01 -4.0137E+00
   77  1.9010E-03  3.9691E+01 -4.0632E+00
   78 -1.5435E-01  2.6899E-01 -4.6295E-01
   79 -1.1252E-01  9.5991E-01 -9.2727E-01
   80 -1.2709E-01  2.1600E+00 -1.3632E+00
   81 -1.1217E-01  3.7416E+00 -1.7662E+00
   82 -1.0663E-01  5.7345E+00 -2.1335E+00
   83 -9.5462E-02  8.0638E+00 -2.4716E+00
   84 -8.6947E-02  1.0724E+01 -2.7766E+00
   85 -7.6882E-02  1.3668E+01 -3.0504E+00
   86 -6.7615E-02  1.6872E+01 -3.2909E+00
   87 -5.8219E-02  2.0300E+01 -3.5001E+00
   88 -4.7673E-02  2.3920E+01 -3.6767E+00
   89 -3.8211E-02  2.7706E+01 -3.8223E+00
   90 -2.9797E-02  3.1608E+01 -3.9332E+00
   91 -2.4431E-02  3.5620E+01 -4.0137E+00
   92 -1.9010E-03  3.9691E+01 -4.0632E+00
   93  0.0000E+00  0.0000E+00  0.0000E+00
   94  0.0000E+00  0.0000E+00  0.0000E+00
   95  0.0000E+00  0.0000E+00  0.0000E+00
   96  0.0000E+00  0.0000E+00  0.0000E+00
   97  0.0000E+00  0.0000E+00  0.0000E+00
   98 -5.1876E-11  4.3787E+01  2.0341E+00
   99 -5.2688E-11  4.3786E+01 -2.7774E-12
  100 -5.2685E-11  4.3778E+01 -4.1374E-13
  101 -5.2675E-11  4.3786E+01  1.9626E-12
  102 -5.3497E-11  4.3787E+01 -2.0341E+00
  103 -4.1286E-14  3.3517E-01  4.4962E-01
  104  5.5704E-02  1.0143E+00  9.3324E-01
  105 -7.8243E-13  1.0266E+00  9.3999E-01
  106 -5.5704E-02  1.0143E+00  9.3324E-01
  107 -2.0131E-12  2.2204E+00  1.3636E+00
  108  5.6094E-02  3.7851E+00  1.7695E+00
  109 -3.8030E-12  3.8021E+00  1.7700E+00
  110 -5.6094E-02  3.7851E+00  1.7695E+00
  111 -6.0560E-12  5.7865E+00  2.1353E+00
  112  4.7701E-02  8.1009E+00  2.4739E+00
  113 -8.7701E-12  8.1132E+00  2.4739E+00
  114 -4.7701E-02  8.1009E+00  2.4739E+00
  115 -1.1886E-11  1.0767E+01  2.7787E+00
  116  3.8450E-02  1.3697E+01  3.0526E+00
  117 -1.5367E-11  1.3707E+01  3.0524E+00
  118 -3.8450E-02  1.3697E+01  3.0526E+00
  119 -1.9169E-11  1.6906E+01  3.2930E+00
  120  2.9086E-02  2.0322E+01  3.5023E+00
  121 -2.3231E-11  2.0328E+01  3.5021E+00
  122 -2.9086E-02  2.0322E+01  3.5023E+00
  123 -2.7582E-11  2.3945E+01  3.6788E+00
  124  1.9194E-02  2.7718E+01  3.8242E+00
  125 -3.2097E-11  2.7722E+01  3.8240E+00
  126 -1.9194E-02  2.7718E+01  3.8242E+00
  127 -3.6787E-11  3.1626E+01  3.9354E+00
  128  1.1840E-02  3.5630E+01  4.0164E+00
  129 -4.1520E-11  3.5625E+01  4.0165E+00
  130 -1.1840E-02  3.5630E+01  4.0164E+00
  131 -4.6257E-11  3.9696E+01  4.0642E+00
  132 -3.9727E-13  1.7406E-01  5.1699E-13
  133 -5.6777E-02  9.2168E-01  4.5952E-01
  134 -1.2483E-12  9.2748E-01  1.0808E-12
  135  5.6777E-02  9.2168E-01 -4.5952E-01
  136 -2.7099E-12  2.0861E+00  1.5665E-12
  137 -5.5960E-02  3.7075E+00  8.7743E-01
  138 -4.6545E-12  3.6996E+00  2.0291E-12
  139  5.5960E-02  3.7075E+00 -8.7743E-01
  140 -7.0908E-12  5.6771E+00  2.4393E-12
  141 -4.7760E-02  8.0302E+00  1.2308E+00
  142 -9.9548E-12  8.0214E+00  2.8187E-12
  143  4.7760E-02  8.0302E+00 -1.2308E+00
  144 -1.3216E-11  1.0679E+01  3.1587E-12
  145 -3.8469E-02  1.3640E+01  1.5199E+00
  146 -1.6819E-11  1.3631E+01  3.4471E-12
  147  3.8469E-02  1.3640E+01 -1.5199E+00
  148 -2.0749E-11  1.6838E+01  3.6874E-12
  149 -2.8957E-02  2.0278E+01  1.7450E+00
  150 -2.4893E-11  2.0270E+01  3.8939E-12
  151  2.8957E-02  2.0278E+01 -1.7450E+00
  152 -2.9278E-11  2.3897E+01  4.0499E-12
  153 -1.9747E-02  2.7688E+01  1.9055E+00
  154 -3.3774E-11  2.7681E+01  4.1793E-12
  155  1.9747E-02  2.7688E+01 -1.9055E+00
  156 -3.8456E-11  3.1599E+01  4.2827E-12
  157 -9.7480E-03  3.5611E+01  2.0034E+00
  158 -4.3161E-11  3.5603E+01  4.3252E-12
  159  9.7480E-03  3.5611E+01 -2.0034E+00
  160 -4.7947E-11  3.9689E+01  4.3189E-12
  161 -3.8419E-13  3.3517E-01 -4.4962E-01
  162  5.5704E-02  1.0143E+00 -9.3324E-01
  163 -1.4878E-12  1.0266E+00 -9.3999E-01
  164 -5.5704E-02  1.0143E+00 -9.3324E-01
  165 -3.1020E-12  2.2204E+00 -1.3636E+00
  166  5.6094E-02  3.7851E+00 -1.7695E+00
  167 -5.2694E-12  3.8021E+00 -1.7700E+00
  168 -5.6094E-02  3.7851E+00 -1.7695E+00
  169 -7.8811E-12  5.7865E+00 -2.1353E+00
  170  4.7701E-02  8.1009E+00 -2.4739E+00
  171 -1.0936E-11  8.1132E+00 -2.4739E+00
  172 -4.7701E-02  8.1009E+00 -2.4739E+00
  173 -1.4372E-11  1.0767E+01 -2.7787E+00
  174  3.8450E-02  1.3697E+01 -3.0526E+00
  175 -1.8144E-11  1.3707E+01 -3.0524E+00
  176 -3.8450E-02  1.3697E+01 -3.0526E+00
  177 -2.2189E-11  1.6906E+01 -3.2930E+00
  178  2.9086E-02  2.0322E+01 -3.5023E+00
  179 -2.6456E-11  2.0328E+01 -3.5021E+00
  180 -2.9086E-02  2.0322E+01 -3.5023E+00
  181 -3.0862E-11  2.3945E+01 -3.6788E+00
  182  1.9194E-02  2.7718E+01 -3.8242E+00
  183 -3.5399E-11  2.7722E+01 -3.8240E+00
  184 -1.9194E-02  2.7718E+01 -3.8242E+00
  185 -4.0098E-11  3.1626E+01 -3.9354E+00
  186  1.1840E-02  3.5630E+01 -4.0164E+00
  187 -4.4831E-11  3.5625E+01 -4.0165E+00
  188 -1.1840E-02  3.5630E+01 -4.0164E+00
  189 -4.9617E-11  3.9696E+01 -4.0642E+00
  190 -4.2313E-13  1.7406E-01 -5.8486E-13
  191 -5.6777E-02  9.2168E-01 -4.5952E-01
  192 -1.2678E-12  9.2748E-01 -1.2246E-12
  193  5.6777E-02  9.2168E-01  4.5952E-01
  194 -2.7331E-12  2.0861E+00 -1.7831E-12
  195 -5.5960E-02  3.7075E+00 -8.7743E-01
  196 -4.6735E-12  3.6996E+00 -2.3211E-12
  197  5.5960E-02  3.7075E+00  8.7743E-01
  198 -7.1164E-12  5.6771E+00 -2.8069E-12
  199 -4.7760E-02  8.0302E+00 -1.2308E+00
  200 -9.9796E-12  8.0214E+00 -3.2631E-12
  201  4.7760E-02  8.0302E+00  1.2308E+00
  202 -1.3248E-11  1.0679E+01 -3.6662E-12
  203 -3.8469E-02  1.3640E+01 -1.5199E+00
  204 -1.6846E-11  1.3631E+01 -4.0179E-12
  205  3.8469E-02  1.3640E+01  1.5199E+00
  206 -2.0762E-11  1.6838E+01 -4.3267E-12
  207 -2.8957E-02  2.0278E+01 -1.7450E+00
  208 -2.4925E-11  2.0270E+01 -4.5827E-12
  209  2.8957E-02  2.0278E+01  1.7450E+00
  210 -2.9276E-11  2.3897E+01 -4.7709E-12
  211 -1.9747E-02  2.7688E+01 -1.9055E+00
  212 -3.3811E-11  2.7681E+01 -4.9624E-12
  213  1.9747E-02  2.7688E+01  1.9055E+00
  214 -3.8463E-11  3.1599E+01 -5.0668E-12
  215 -9.7480E-03  3.5611E+01 -2.0034E+00
  216 -4.3173E-11  3.5603E+01 -5.1140E-12
  217  9.7480E-03  3.5611E+01  2.0034E+00
  218 -4.7935E-11  3.9689E+01 -5.1529E-12
  219 -2.9358E-13  2.3987E-01 -3.2340E-14
  220 -1.0235E-12  9.8508E-01  4.6494E-01
  221 -1.2120E-12  9.7980E-01 -6.4200E-13
  222 -1.2120E-12  9.8897E-01 -7.1752E-14
  223 -1.2024E-12  9.7980E-01  4.9890E-13
  224 -1.3763E-12  9.8508E-01 -4.6494E-01
  225 -2.6335E-12  2.1487E+00 -1.0868E-13
  226 -4.2208E-12  3.7660E+00  8.8063E-01
  227 -4.6240E-12  3.7408E+00 -1.2260E-12
  228 -4.6060E-12  3.7558E+00 -1.4195E-13
  229 -4.6148E-12  3.7408E+00  9.3719E-13
  230 -4.9533E-12  3.7660E+00 -8.8063E-01
  231 -7.0358E-12  5.7306E+00 -1.8439E-13
  232 -9.3572E-12  8.0786E+00  1.2330E+00
  233 -9.9351E-12  8.0575E+00 -1.7334E-12
  234 -9.9156E-12  8.0688E+00 -2.1783E-13
  235 -9.9183E-12  8.0575E+00  1.2966E-12
  236 -1.0441E-11  8.0786E+00 -1.2330E+00
  237 -1.3180E-11  1.0723E+01 -2.5153E-13
  238 -1.6086E-11  1.3679E+01  1.5220E+00
  239 -1.6808E-11  1.3660E+01 -2.1488E-12
  240 -1.6794E-11  1.3670E+01 -2.8636E-13
  241 -1.6795E-11  1.3660E+01  1.5722E-12
  242 -1.7483E-11  1.3679E+01 -1.5220E+00
  243 -2.0710E-11  1.6872E+01 -3.1697E-13
  244 -2.4068E-11  2.0307E+01  1.7470E+00
  245 -2.4896E-11  2.0292E+01 -2.4584E-12
  246 -2.4880E-11  2.0300E+01 -3.4858E-13
  247 -2.4878E-11  2.0292E+01  1.7686E-12
  248 -2.5685E-11  2.0307E+01 -1.7470E+00
  249 -2.9252E-11  2.3920E+01 -3.6309E-13
  250 -3.2945E-11  2.7707E+01  1.9077E+00
  251 -3.3796E-11  2.7696E+01 -2.6635E-12
  252 -3.3790E-11  2.7701E+01 -3.7980E-13
  253 -3.3782E-11  2.7696E+01  1.8966E-12
  254 -3.4587E-11  2.7707E+01 -1.9077E+00
  255 -3.8443E-11  3.1613E+01 -3.9674E-13
  256 -4.2349E-11  3.5618E+01  2.0046E+00
  257 -4.3172E-11  3.5611E+01 -2.7563E-12
  258 -4.3167E-11  3.5615E+01 -4.0123E-13
  259 -4.3154E-11  3.5611E+01  1.9557E-12
  260 -4.4009E-11  3.5618E+01 -2.0046E+00
  261 -4.7932E-11  3.9690E+01 -4.1232E-13

 stresses (elem, integ.pnt.,sxx,syy,szz,sxy,sxz,syz)

    1    1  3.0531E+04  3.0733E+04  1.6990E+05 -3.8351E+03  1.5657E+04  5.3482E+03
    1    2  2.8931E+04  2.9005E+04  1.6569E+05  1.1191E+03  3.2196E+03  1.2904E+04
    1    3  7.2099E+02 -8.7739E+03  3.7742E+04 -3.8404E+03  4.1957E+03 -3.9458E+03
    1    4  3.5688E+02 -9.0432E+03  3.6637E+04  1.1139E+03  8.5138E+02  3.6936E+03
    1    5 -8.5385E+03 -7.2635E+03  1.5049E+05 -1.3552E+03 -6.2937E+03 -7.5603E+00
    1    6 -5.0032E+03 -4.9553E+03  1.5773E+05  4.7139E+02 -1.9361E+03 -4.3054E+02
    1    7 -4.1515E+03 -5.7403E+03  3.8184E+04 -1.7500E+03 -1.7286E+03  9.4093E+03
    1    8 -3.2867E+03 -5.2716E+03  3.9999E+04  7.7008E+01 -5.7278E+02  9.0288E+03
    2    1  2.8931E+04  2.9005E+04  1.6569E+05 -1.1191E+03 -3.2196E+03  1.2904E+04
    2    2  3.0531E+04  3.0733E+04  1.6990E+05  3.8351E+03 -1.5657E+04  5.3482E+03
    2    3  3.5688E+02 -9.0432E+03  3.6637E+04 -1.1139E+03 -8.5138E+02  3.6936E+03
    2    4  7.2099E+02 -8.7739E+03  3.7742E+04  3.8404E+03 -4.1957E+03 -3.9458E+03
    2    5 -5.0032E+03 -4.9553E+03  1.5773E+05 -4.7139E+02  1.9361E+03 -4.3054E+02
    2    6 -8.5385E+03 -7.2635E+03  1.5049E+05  1.3552E+03  6.2937E+03 -7.5603E+00
    2    7 -3.2867E+03 -5.2716E+03  3.9999E+04 -7.7008E+01  5.7278E+02  9.0288E+03
    2    8 -4.1515E+03 -5.7403E+03  3.8184E+04  1.7500E+03  1.7286E+03  9.4093E+03
    3    1 -7.2099E+02  8.7739E+03 -3.7742E+04 -3.8404E+03 -4.1957E+03 -3.9458E+03
    3    2 -3.5688E+02  9.0432E+03 -3.6637E+04  1.1139E+03 -8.5138E+02  3.6936E+03
    3    3 -3.0531E+04 -3.0733E+04 -1.6990E+05 -3.8351E+03 -1.5657E+04  5.3482E+03
    3    4 -2.8931E+04 -2.9005E+04 -1.6569E+05  1.1191E+03 -3.2196E+03  1.2904E+04
    3    5  4.1515E+03  5.7403E+03 -3.8184E+04 -1.7500E+03  1.7286E+03  9.4093E+03
    3    6  3.2867E+03  5.2716E+03 -3.9999E+04  7.7008E+01  5.7278E+02  9.0288E+03
    3    7  8.5385E+03  7.2635E+03 -1.5049E+05 -1.3552E+03  6.2937E+03 -7.5603E+00
    3    8  5.0032E+03  4.9553E+03 -1.5773E+05  4.7139E+02  1.9361E+03 -4.3054E+02
    4    1 -3.5688E+02  9.0432E+03 -3.6637E+04 -1.1139E+03  8.5138E+02  3.6936E+03
    4    2 -7.2099E+02  8.7739E+03 -3.7742E+04  3.8404E+03  4.1957E+03 -3.9458E+03
    4    3 -2.8931E+04 -2.9005E+04 -1.6569E+05 -1.1191E+03  3.2196E+03  1.2904E+04
    4    4 -3.0531E+04 -3.0733E+04 -1.6990E+05  3.8351E+03  1.5657E+04  5.3482E+03
    4    5  3.2867E+03  5.2716E+03 -3.9999E+04 -7.7008E+01 -5.7278E+02  9.0288E+03
    4    6  4.1515E+03  5.7403E+03 -3.8184E+04  1.7500E+03 -1.7286E+03  9.4093E+03
    4    7  5.0032E+03  4.9553E+03 -1.5773E+05 -4.7139E+02 -1.9361E+03 -4.3054E+02
    4    8  8.5385E+03  7.2635E+03 -1.5049E+05  1.3552E+03 -6.2937E+03 -7.5603E+00
    5    1  2.5963E+03  1.2793E+01  1.4512E+05  2.0029E+03  2.3444E+03  5.2956E+03
    5    2  1.8924E+03 -1.4825E+03  1.4204E+05 -1.2215E+03  1.1332E+03  4.2390E+03
    5    3  4.4608E+03  9.0763E+03  4.2623E+04  1.8283E+03  5.7143E+02  4.4334E+03
    5    4  4.5154E+03  9.1414E+03  4.2143E+04 -1.3961E+03  2.6156E+02  4.0319E+03
    5    5 -1.7975E+03 -2.6098E+03  1.3170E+05 -3.3347E+02 -1.2924E+03  1.0523E+03
    5    6 -9.3994E+02 -1.8729E+03  1.3325E+05 -7.1404E+01 -6.0113E+02  1.1232E+03
    5    7 -1.3410E+03 -2.6124E+03  3.4344E+04 -3.2656E+02 -3.0137E+02  8.2606E+03
    5    8 -1.0156E+03 -2.2936E+03  3.4958E+04 -6.5897E+01 -1.0147E+02  7.5640E+03
    6    1  1.8924E+03 -1.4825E+03  1.4204E+05  1.2215E+03 -1.1332E+03  4.2390E+03
    6    2  2.5963E+03  1.2793E+01  1.4512E+05 -2.0029E+03 -2.3444E+03  5.2956E+03
    6    3  4.5154E+03  9.1414E+03  4.2143E+04  1.3961E+03 -2.6156E+02  4.0319E+03
    6    4  4.4608E+03  9.0763E+03  4.2623E+04 -1.8283E+03 -5.7143E+02  4.4334E+03
    6    5 -9.3994E+02 -1.8729E+03  1.3325E+05  7.1404E+01  6.0113E+02  1.1232E+03
    6    6 -1.7975E+03 -2.6098E+03  1.3170E+05  3.3347E+02  1.2924E+03  1.0523E+03
    6    7 -1.0156E+03 -2.2936E+03  3.4958E+04  6.5897E+01  1.0147E+02  7.5640E+03
    6    8 -1.3410E+03 -2.6124E+03  3.4344E+04  3.2656E+02  3.0137E+02  8.2606E+03
    7    1 -4.4608E+03 -9.0763E+03 -4.2623E+04  1.8283E+03 -5.7143E+02  4.4334E+03
    7    2 -4.5154E+03 -9.1414E+03 -4.2143E+04 -1.3961E+03 -2.6156E+02  4.0319E+03
    7    3 -2.5963E+03 -1.2793E+01 -1.4512E+05  2.0029E+03 -2.3444E+03  5.2956E+03
    7    4 -1.8924E+03  1.4825E+03 -1.4204E+05 -1.2215E+03 -1.1332E+03  4.2390E+03
    7    5  1.3410E+03  2.6124E+03 -3.4344E+04 -3.2656E+02  3.0137E+02  8.2606E+03
    7    6  1.0156E+03  2.2936E+03 -3.4958E+04 -6.5897E+01  1.0147E+02  7.5640E+03
    7    7  1.7975E+03  2.6098E+03 -1.3170E+05 -3.3347E+02  1.2924E+03  1.0523E+03
    7    8  9.3994E+02  1.8729E+03 -1.3325E+05 -7.1404E+01  6.0113E+02  1.1232E+03
    8    1 -4.5154E+03 -9.1414E+03 -4.2143E+04  1.3961E+03  2.6156E+02  4.0319E+03
    8    2 -4.4608E+03 -9.0763E+03 -4.2623E+04 -1.8283E+03  5.7143E+02  4.4334E+03
    8    3 -1.8924E+03  1.4825E+03 -1.4204E+05  1.2215E+03  1.1332E+03  4.2390E+03
    8    4 -2.5963E+03 -1.2793E+01 -1.4512E+05 -2.0029E+03  2.3444E+03  5.2956E+03
    8    5  1.0156E+03  2.2936E+03 -3.4958E+04  6.5897E+01 -1.0147E+02  7.5640E+03
    8    6  1.3410E+03  2.6124E+03 -3.4344E+04  3.2656E+02 -3.0137E+02  8.2606E+03
    8    7  9.3994E+02  1.8729E+03 -1.3325E+05  7.1404E+01 -6.0113E+02  1.1232E+03
    8    8  1.7975E+03  2.6098E+03 -1.3170E+05  3.3347E+02 -1.2924E+03  1.0523E+03
    9    1  1.3965E+03  2.9645E+03  1.2363E+05 -1.7528E+02  3.4861E+02  3.6825E+03
    9    2  1.0645E+03  2.5401E+03  1.2295E+05  4.1715E+02 -6.2833E+01  2.9896E+03
    9    3  3.1679E+02  5.5903E+02  3.3107E+04 -2.0972E+02  1.9503E+02  6.0967E+03
    9    4  9.6031E+01  1.5258E+02  3.2777E+04  3.8272E+02  8.1237E+01  5.2312E+03
    9    5 -4.6529E+02 -1.0163E+03  1.1089E+05 -9.9202E+01 -4.7204E+02  2.1897E+03
    9    6 -2.5699E+02 -7.1965E+02  1.1118E+05 -6.3901E+01 -3.1853E+02  1.9583E+03
    9    7 -4.5325E+02 -1.0931E+03  2.9436E+04 -4.1143E+01 -3.9628E+01  7.3795E+03
    9    8 -3.3924E+02 -8.6302E+02  2.9556E+04 -5.8871E-01 -2.0398E+00  6.4725E+03
   10    1  1.0645E+03  2.5401E+03  1.2295E+05 -4.1715E+02  6.2833E+01  2.9896E+03
   10    2  1.3965E+03  2.9645E+03  1.2363E+05  1.7528E+02 -3.4861E+02  3.6825E+03
   10    3  9.6031E+01  1.5258E+02  3.2777E+04 -3.8272E+02 -8.1237E+01  5.2312E+03
   10    4  3.1679E+02  5.5903E+02  3.3107E+04  2.0972E+02 -1.9503E+02  6.0967E+03
   10    5 -2.5699E+02 -7.1965E+02  1.1118E+05  6.3901E+01  3.1853E+02  1.9583E+03
   10    6 -4.6529E+02 -1.0163E+03  1.1089E+05  9.9202E+01  4.7204E+02  2.1897E+03
   10    7 -3.3924E+02 -8.6302E+02  2.9556E+04  5.8871E-01  2.0398E+00  6.4725E+03
   10    8 -4.5325E+02 -1.0931E+03  2.9436E+04  4.1143E+01  3.9628E+01  7.3795E+03
   11    1 -3.1679E+02 -5.5903E+02 -3.3107E+04 -2.0972E+02 -1.9503E+02  6.0967E+03
   11    2 -9.6031E+01 -1.5258E+02 -3.2777E+04  3.8272E+02 -8.1237E+01  5.2312E+03
   11    3 -1.3965E+03 -2.9645E+03 -1.2363E+05 -1.7528E+02 -3.4861E+02  3.6825E+03
   11    4 -1.0645E+03 -2.5401E+03 -1.2295E+05  4.1715E+02  6.2833E+01  2.9896E+03
   11    5  4.5325E+02  1.0931E+03 -2.9436E+04 -4.1143E+01  3.9628E+01  7.3795E+03
   11    6  3.3924E+02  8.6302E+02 -2.9556E+04 -5.8871E-01  2.0398E+00  6.4725E+03
   11    7  4.6529E+02  1.0163E+03 -1.1089E+05 -9.9202E+01  4.7204E+02  2.1897E+03
   11    8  2.5699E+02  7.1965E+02 -1.1118E+05 -6.3901E+01  3.1853E+02  1.9583E+03
   12    1 -9.6031E+01 -1.5258E+02 -3.2777E+04 -3.8272E+02  8.1237E+01  5.2312E+03
   12    2 -3.1679E+02 -5.5903E+02 -3.3107E+04  2.0972E+02  1.9503E+02  6.0967E+03
   12    3 -1.0645E+03 -2.5401E+03 -1.2295E+05 -4.1715E+02 -6.2833E+01  2.9896E+03
   12    4 -1.3965E+03 -2.9645E+03 -1.2363E+05  1.7528E+02  3.4861E+02  3.6825E+03
   12    5  3.3924E+02  8.6302E+02 -2.9556E+04  5.8871E-01 -2.0398E+00  6.4725E+03
   12    6  4.5325E+02  1.0931E+03 -2.9436E+04  4.1143E+01 -3.9628E+01  7.3795E+03
   12    7  2.5699E+02  7.1965E+02 -1.1118E+05  6.3901E+01 -3.1853E+02  1.9583E+03
   12    8  4.6529E+02  1.0163E+03 -1.1089E+05  9.9202E+01 -4.7204E+02  2.1897E+03
   13    1  1.7623E+02  3.5625E+02  1.0195E+05  1.6539E+02 -1.1661E+02  3.1729E+03
   13    2  9.7891E+01  1.3507E+02  1.0180E+05 -3.9749E+01 -1.7201E+02  2.6303E+03
   13    3  4.5749E+02  1.0893E+03  2.7712E+04  1.0355E+02  4.6760E+01  6.5093E+03
   13    4  3.9781E+02  9.3581E+02  2.7636E+04 -1.0159E+02  3.1953E+01  5.6875E+03
   13    5 -1.6936E+02 -4.2316E+02  8.9677E+04 -5.5530E+01 -3.0422E+02  2.5616E+03
   13    6 -9.5509E+01 -2.5249E+02  8.9756E+04 -1.4114E+01 -2.5480E+02  2.1862E+03
   13    7 -2.1245E+02 -4.6715E+02  2.3845E+04 -1.1395E+01  4.4820E-01  7.0636E+03
   13    8 -1.4677E+02 -3.1829E+02  2.3916E+04  1.0413E+01  1.3727E+01  6.1886E+03
   14    1  9.7891E+01  1.3507E+02  1.0180E+05  3.9749E+01  1.7201E+02  2.6303E+03
   14    2  1.7623E+02  3.5625E+02  1.0195E+05 -1.6539E+02  1.1661E+02  3.1729E+03
   14    3  3.9781E+02  9.3581E+02  2.7636E+04  1.0159E+02 -3.1953E+01  5.6875E+03
   14    4  4.5749E+02  1.0893E+03  2.7712E+04 -1.0355E+02 -4.6760E+01  6.5093E+03
   14    5 -9.5509E+01 -2.5249E+02  8.9756E+04  1.4114E+01  2.5480E+02  2.1862E+03
   14    6 -1.6936E+02 -4.2316E+02  8.9677E+04  5.5530E+01  3.0422E+02  2.5616E+03
   14    7 -1.4677E+02 -3.1829E+02  2.3916E+04 -1.0413E+01 -1.3727E+01  6.1886E+03
   14    8 -2.1245E+02 -4.6715E+02  2.3845E+04  1.1395E+01 -4.4820E-01  7.0636E+03
   15    1 -4.5749E+02 -1.0893E+03 -2.7712E+04  1.0355E+02 -4.6760E+01  6.5093E+03
   15    2 -3.9781E+02 -9.3581E+02 -2.7636E+04 -1.0159E+02 -3.1953E+01  5.6875E+03
   15    3 -1.7623E+02 -3.5625E+02 -1.0195E+05  1.6539E+02  1.1661E+02  3.1729E+03
   15    4 -9.7891E+01 -1.3507E+02 -1.0180E+05 -3.9749E+01  1.7201E+02  2.6303E+03
   15    5  2.1245E+02  4.6715E+02 -2.3845E+04 -1.1395E+01 -4.4820E-01  7.0636E+03
   15    6  1.4677E+02  3.1829E+02 -2.3916E+04  1.0413E+01 -1.3727E+01  6.1886E+03
   15    7  1.6936E+02  4.2316E+02 -8.9677E+04 -5.5530E+01  3.0422E+02  2.5616E+03
   15    8  9.5509E+01  2.5249E+02 -8.9756E+04 -1.4114E+01  2.5480E+02  2.1862E+03
   16    1 -3.9781E+02 -9.3581E+02 -2.7636E+04  1.0159E+02  3.1953E+01  5.6875E+03
   16    2 -4.5749E+02 -1.0893E+03 -2.7712E+04 -1.0355E+02  4.6760E+01  6.5093E+03
   16    3 -9.7891E+01 -1.3507E+02 -1.0180E+05  3.9749E+01 -1.7201E+02  2.6303E+03
   16    4 -1.7623E+02 -3.5625E+02 -1.0195E+05 -1.6539E+02 -1.1661E+02  3.1729E+03
   16    5  1.4677E+02  3.1829E+02 -2.3916E+04 -1.0413E+01  1.3727E+01  6.1886E+03
   16    6  2.1245E+02  4.6715E+02 -2.3845E+04  1.1395E+01  4.4820E-01  7.0636E+03
   16    7  9.5509E+01  2.5249E+02 -8.9756E+04  1.4114E+01 -2.5480E+02  2.1862E+03
   16    8  1.6936E+02  4.2316E+02 -8.9677E+04  5.5530E+01 -3.0422E+02  2.5616E+03
   17    1  1.6033E+02  4.1707E+02  8.0684E+04  1.5591E+01 -2.0580E+02  2.8209E+03
   17    2  9.9553E+01  2.7697E+02  8.0632E+04  5.4407E+01 -2.3365E+02  2.4127E+03
   17    3  1.3153E+02  2.9674E+02  2.1722E+04 -2.3371E+01  2.1653E+01  6.8185E+03
   17    4  6.2267E+01  1.3856E+02  2.1653E+04  1.5446E+01  1.8276E+01  5.9478E+03
   17    5 -1.5071E+02 -2.6754E+02  6.8385E+04 -1.2681E+01 -2.1745E+02  2.8116E+03
   17    6 -8.6756E+01 -1.7062E+02  6.8417E+04 -1.0697E+02 -2.4742E+02  2.3274E+03
   17    7 -1.4303E+02 -3.8734E+02  1.8219E+04  3.1928E+01  1.5564E+01  6.8426E+03
   17    8 -6.1958E+01 -2.0922E+02  1.8289E+04  1.0813E+01  1.1618E+01  6.0184E+03
   18    1  9.9553E+01  2.7697E+02  8.0632E+04 -5.4407E+01  2.3365E+02  2.4127E+03
   18    2  1.6033E+02  4.1707E+02  8.0684E+04 -1.5591E+01  2.0580E+02  2.8209E+03
   18    3  6.2267E+01  1.3856E+02  2.1653E+04 -1.5446E+01 -1.8276E+01  5.9478E+03
   18    4  1.3153E+02  2.9674E+02  2.1722E+04  2.3371E+01 -2.1653E+01  6.8185E+03
   18    5 -8.6756E+01 -1.7062E+02  6.8417E+04  1.0697E+02  2.4742E+02  2.3274E+03
   18    6 -1.5071E+02 -2.6754E+02  6.8385E+04  1.2681E+01  2.1745E+02  2.8116E+03
   18    7 -6.1958E+01 -2.0922E+02  1.8289E+04 -1.0813E+01 -1.1618E+01  6.0184E+03
   18    8 -1.4303E+02 -3.8734E+02  1.8219E+04 -3.1928E+01 -1.5564E+01  6.8426E+03
   19    1 -1.3153E+02 -2.9674E+02 -2.1722E+04 -2.3371E+01 -2.1653E+01  6.8185E+03
   19    2 -6.2267E+01 -1.3856E+02 -2.1653E+04  1.5446E+01 -1.8276E+01  5.9478E+03
   19    3 -1.6033E+02 -4.1707E+02 -8.0684E+04  1.5591E+01  2.0580E+02  2.8209E+03
   19    4 -9.9553E+01 -2.7697E+02 -8.0632E+04  5.4407E+01  2.3365E+02  2.4127E+03
   19    5  1.4303E+02  3.8734E+02 -1.8219E+04  3.1928E+01 -1.5564E+01  6.8426E+03
   19    6  6.1958E+01  2.0922E+02 -1.8289E+04  1.0813E+01 -1.1618E+01  6.0184E+03
   19    7  1.5071E+02  2.6754E+02 -6.8385E+04 -1.2681E+01  2.1745E+02  2.8116E+03
   19    8  8.6756E+01  1.7062E+02 -6.8417E+04 -1.0697E+02  2.4742E+02  2.3274E+03
   20    1 -6.2267E+01 -1.3856E+02 -2.1653E+04 -1.5446E+01  1.8276E+01  5.9478E+03
   20    2 -1.3153E+02 -2.9674E+02 -2.1722E+04  2.3371E+01  2.1653E+01  6.8185E+03
   20    3 -9.9553E+01 -2.7697E+02 -8.0632E+04 -5.4407E+01 -2.3365E+02  2.4127E+03
   20    4 -1.6033E+02 -4.1707E+02 -8.0684E+04 -1.5591E+01 -2.0580E+02  2.8209E+03
   20    5  6.1958E+01  2.0922E+02 -1.8289E+04 -1.0813E+01  1.1618E+01  6.0184E+03
   20    6  1.4303E+02  3.8734E+02 -1.8219E+04 -3.1928E+01  1.5564E+01  6.8426E+03
   20    7  8.6756E+01  1.7062E+02 -6.8417E+04  1.0697E+02 -2.4742E+02  2.3274E+03
   20    8  1.5071E+02  2.6754E+02 -6.8385E+04  1.2681E+01 -2.1745E+02  2.8116E+03
   21    1  1.5416E+02  3.5491E+02  5.9387E+04  6.6009E+01 -2.8909E+02  2.6544E+03
   21    2  8.1783E+01  1.5728E+02  5.9346E+04  4.1808E+01 -2.4670E+02  2.3213E+03
   21    3  1.6474E+02  4.3116E+02  1.5999E+04 -2.8025E+00  3.1076E+01  6.9869E+03
   21    4  8.7414E+01  2.2787E+02  1.5945E+04 -2.7004E+01  2.4377E+01  6.0374E+03
   21    5 -1.1914E+02 -7.1755E+02  4.7057E+04 -2.1842E+02 -1.9467E+02  2.9462E+03
   21    6 -1.1625E+01 -1.6648E+02  4.7196E+04  1.8499E+02 -1.9663E+02  2.3245E+03
   21    7 -2.5961E+02 -4.3473E+02  1.2416E+04 -1.2401E+02  7.1527E+01  6.7682E+03
   21    8 -1.6449E+02 -1.4748E+02  1.2535E+04  6.2942E+00  5.2944E+01  5.9611E+03
   22    1  8.1783E+01  1.5728E+02  5.9346E+04 -4.1808E+01  2.4670E+02  2.3213E+03
   22    2  1.5416E+02  3.5491E+02  5.9387E+04 -6.6009E+01  2.8909E+02  2.6544E+03
   22    3  8.7414E+01  2.2787E+02  1.5945E+04  2.7004E+01 -2.4377E+01  6.0374E+03
   22    4  1.6474E+02  4.3116E+02  1.5999E+04  2.8025E+00 -3.1076E+01  6.9869E+03
   22    5 -1.1625E+01 -1.6648E+02  4.7196E+04 -1.8499E+02  1.9663E+02  2.3245E+03
   22    6 -1.1914E+02 -7.1755E+02  4.7057E+04  2.1842E+02  1.9467E+02  2.9462E+03
   22    7 -1.6449E+02 -1.4748E+02  1.2535E+04 -6.2942E+00 -5.2944E+01  5.9611E+03
   22    8 -2.5961E+02 -4.3473E+02  1.2416E+04  1.2401E+02 -7.1527E+01  6.7682E+03
   23    1 -1.6474E+02 -4.3116E+02 -1.5999E+04 -2.8025E+00 -3.1076E+01  6.9869E+03
   23    2 -8.7414E+01 -2.2787E+02 -1.5945E+04 -2.7004E+01 -2.4377E+01  6.0374E+03
   23    3 -1.5416E+02 -3.5491E+02 -5.9387E+04  6.6009E+01  2.8909E+02  2.6544E+03
   23    4 -8.1783E+01 -1.5728E+02 -5.9346E+04  4.1808E+01  2.4670E+02  2.3213E+03
   23    5  2.5961E+02  4.3473E+02 -1.2416E+04 -1.2401E+02 -7.1527E+01  6.7682E+03
   23    6  1.6449E+02  1.4748E+02 -1.2535E+04  6.2942E+00 -5.2944E+01  5.9611E+03
   23    7  1.1914E+02  7.1755E+02 -4.7057E+04 -2.1842E+02  1.9467E+02  2.9462E+03
   23    8  1.1625E+01  1.6648E+02 -4.7196E+04  1.8499E+02  1.9663E+02  2.3245E+03
   24    1 -8.7414E+01 -2.2787E+02 -1.5945E+04  2.7004E+01  2.4377E+01  6.0374E+03
   24    2 -1.6474E+02 -4.3116E+02 -1.5999E+04  2.8025E+00  3.1076E+01  6.9869E+03
   24    3 -8.1783E+01 -1.5728E+02 -5.9346E+04 -4.1808E+01 -2.4670E+02  2.3213E+03
   24    4 -1.5416E+02 -3.5491E+02 -5.9387E+04 -6.6009E+01 -2.8909E+02  2.6544E+03
   24    5  1.6449E+02  1.4748E+02 -1.2535E+04 -6.2942E+00  5.2944E+01  5.9611E+03
   24    6  2.5961E+02  4.3473E+02 -1.2416E+04  1.2401E+02  7.1527E+01  6.7682E+03
   24    7  1.1625E+01  1.6648E+02 -4.7196E+04 -1.8499E+02 -1.9663E+02  2.3245E+03
   24    8  1.1914E+02  7.1755E+02 -4.7057E+04  2.1842E+02 -1.9467E+02  2.9462E+03
   25    1  2.5119E+02  6.0216E+02  3.8098E+04  1.4992E+02 -3.3237E+02  2.2455E+03
   25    2  9.3265E+01  2.1330E+02  3.7913E+04  1.3406E+02 -2.8030E+02  2.3244E+03
   25    3  3.7575E+02  7.2825E+02  1.0659E+04  4.8155E+01 -1.0722E+02  7.1668E+03
   25    4  1.6666E+02  3.0617E+02  1.0371E+04  3.2295E+01 -2.2516E+01  6.2633E+03
   25    5 -7.4616E+02 -2.8603E+02  2.5885E+04  1.2173E+02  4.9966E+01  3.9842E+03
   25    6 -4.3269E+02 -6.2977E+02  2.5861E+04 -1.3004E+03 -2.4176E+02  2.6578E+03
   25    7 -5.0658E+02 -1.8884E+03  6.4883E+03  3.1338E+02 -7.6026E+01  6.0185E+03
   25    8 -8.3422E+01 -1.1178E+03  6.7498E+03 -8.9535E+01 -8.3438E+01  5.3394E+03
   26    1  9.3265E+01  2.1330E+02  3.7913E+04 -1.3406E+02  2.8030E+02  2.3244E+03
   26    2  2.5119E+02  6.0216E+02  3.8098E+04 -1.4992E+02  3.3237E+02  2.2455E+03
   26    3  1.6666E+02  3.0617E+02  1.0371E+04 -3.2295E+01  2.2516E+01  6.2633E+03
   26    4  3.7575E+02  7.2825E+02  1.0659E+04 -4.8155E+01  1.0722E+02  7.1668E+03
   26    5 -4.3269E+02 -6.2977E+02  2.5861E+04  1.3004E+03  2.4176E+02  2.6578E+03
   26    6 -7.4616E+02 -2.8603E+02  2.5885E+04 -1.2173E+02 -4.9966E+01  3.9842E+03
   26    7 -8.3422E+01 -1.1178E+03  6.7498E+03  8.9535E+01  8.3438E+01  5.3394E+03
   26    8 -5.0658E+02 -1.8884E+03  6.4883E+03 -3.1338E+02  7.6026E+01  6.0185E+03
   27    1 -3.7575E+02 -7.2825E+02 -1.0659E+04  4.8155E+01  1.0722E+02  7.1668E+03
   27    2 -1.6666E+02 -3.0617E+02 -1.0371E+04  3.2295E+01  2.2516E+01  6.2633E+03
   27    3 -2.5119E+02 -6.0216E+02 -3.8098E+04  1.4992E+02  3.3237E+02  2.2455E+03
   27    4 -9.3265E+01 -2.1330E+02 -3.7913E+04  1.3406E+02  2.8030E+02  2.3244E+03
   27    5  5.0658E+02  1.8884E+03 -6.4883E+03  3.1338E+02  7.6026E+01  6.0185E+03
   27    6  8.3422E+01  1.1178E+03 -6.7498E+03 -8.9535E+01  8.3438E+01  5.3394E+03
   27    7  7.4616E+02  2.8603E+02 -2.5885E+04  1.2173E+02 -4.9966E+01  3.9842E+03
   27    8  4.3269E+02  6.2977E+02 -2.5861E+04 -1.3004E+03  2.4176E+02  2.6578E+03
   28    1 -1.6666E+02 -3.0617E+02 -1.0371E+04 -3.2295E+01 -2.2516E+01  6.2633E+03
   28    2 -3.7575E+02 -7.2825E+02 -1.0659E+04 -4.8155E+01 -1.0722E+02  7.1668E+03
   28    3 -9.3265E+01 -2.1330E+02 -3.7913E+04 -1.3406E+02 -2.8030E+02  2.3244E+03
   28    4 -2.5119E+02 -6.0216E+02 -3.8098E+04 -1.4992E+02 -3.3237E+02  2.2455E+03
   28    5  8.3422E+01  1.1178E+03 -6.7498E+03  8.9535E+01 -8.3438E+01  5.3394E+03
   28    6  5.0658E+02  1.8884E+03 -6.4883E+03 -3.1338E+02 -7.6026E+01  6.0185E+03
   28    7  4.3269E+02  6.2977E+02 -2.5861E+04  1.3004E+03 -2.4176E+02  2.6578E+03
   28    8  7.4616E+02  2.8603E+02 -2.5885E+04 -1.2173E+02  4.9966E+01  3.9842E+03
   29    1  5.3313E+02  2.0057E+03  1.6675E+04  4.9390E+02 -5.9970E+02  1.5620E+03
   29    2  5.2215E+02  1.1315E+03  1.6954E+04  5.3064E+02 -2.5273E+02  1.8607E+03
   29    3  5.3536E+02  2.1956E+03  4.2564E+03  3.7835E+01  3.6070E+02  7.9229E+03
   29    4  3.9105E+02  1.2285E+03  4.5927E+03  7.4572E+01  1.6616E+02  6.6544E+03